
include ${pot}.lmp
include kalj.lmp
units lj
atom_style atomic

variable dimensions equal 3
variable density equal 1.2
variable fraca equal 0.8

dimension ${dimensions}
dimension 3
read_restart ${prevbasename}.final.lmprestart.${steps}
read_restart equil/kalj_T0.65_n360_v300_350000_1.final.lmprestart.${steps}
read_restart equil/kalj_T0.65_n360_v300_350000_1.final.lmprestart.350000
Reading restart file ...
  restart file = 15 Sep 2022, LAMMPS = 15 Sep 2022
  restoring atom style atomic from restart
  orthogonal box = (0 0 0) to (6.6943295 6.6943295 6.6943295)
  1 by 2 by 2 MPI processor grid
  restoring pair style lj/cut from restart
  360 atoms
  read_restart CPU = 0.016 seconds
include ${pot}_particles.lmp
include kalj_particles.lmp
mass * 1.0 #  set mass 1.0 for all types

pair_style lj/cut 2.5
#pair coeffs type1 type2 eps sigma
pair_coeff 1 1 1.0 1.00 2.5
pair_coeff 1 2 1.5 0.80 2.0
pair_coeff 2 2 0.5 0.88 2.2
pair_modify shift yes
reset_timestep 0

print "Setting up equilibration run"
Setting up equilibration run
variable dumptime2 equal ${steps}/2000
variable dumptime2 equal 350000/2000
dump 1 all dcd ${dumptime2} ${basename}.unwrap.dcd
dump 1 all dcd 175 ${basename}.unwrap.dcd
dump 1 all dcd 175 prod/kalj_T0.65_n360_v300_prod_350000_1.unwrap.dcd
#dump 2 all dcd ${dumptime2} ${basename}.dcd
dump_modify 1 unwrap yes
#dump_modify 2 unwrap no

restart ${restarttime} ${basename}.restart
restart 350000 ${basename}.restart
restart 350000 prod/kalj_T0.65_n360_v300_prod_350000_1.restart
restart ${steps} ${basename}.final.lmprestart
restart 350000 ${basename}.final.lmprestart
restart 350000 prod/kalj_T0.65_n360_v300_prod_350000_1.final.lmprestart

thermo ${thermotime}
thermo 70000
timestep ${timestep}
timestep 0.003

neighbor 0.5 bin
neigh_modify every 1 delay ${neighborstep} check yes
neigh_modify every 1 delay 25 check yes

#velocity all create ${temp} ${id} dist gaussian
fix 1 all nvt temp ${temp} ${temp} ${taut}
fix 1 all nvt temp 0.65 ${temp} ${taut}
fix 1 all nvt temp 0.65 0.65 ${taut}
fix 1 all nvt temp 0.65 0.65 0.3
Resetting global fix info from restart file:
  fix style: nvt, fix ID: 1

variable steps4 equal ${steps}/4
variable steps4 equal 350000/4
run ${steps4}
run 87500
Generated 0 of 1 mixed pair_coeff terms from geometric mixing rule
All restart file global fix info was re-assigned
Neighbor list info ...
  update: every = 1 steps, delay = 25 steps, check = yes
  max neighbors/atom: 2000, page size: 100000
  master list distance cutoff = 3
  ghost atom cutoff = 3
  binsize = 1.5, bins = 5 5 5
  1 neighbor lists, perpetual/occasional/extra = 1 0 0
  (1) pair lj/cut, perpetual
      attributes: half, newton on
      pair build: half/bin/atomonly/newton
      stencil: half/bin/3d
      bin: standard
Per MPI rank memory allocation (min/avg/max) = 3.138 | 3.138 | 3.139 Mbytes
   Step          Temp          E_pair         E_mol          TotEng         Press     
         0   0.58960392    -6.4854017      0             -5.6034525      6.4768742    
     70000   0.68622606    -6.539853       0             -5.5133731      6.2071634    
     87500   0.6781784     -6.7051876      0             -5.6907457      5.1575375    
Loop time of 7.53367 on 4 procs for 87500 steps with 360 atoms

Performance: 3010485.971 tau/day, 11614.529 timesteps/s, 4.181 Matom-step/s
99.3% CPU use with 4 MPI tasks x 1 OpenMP threads

MPI task timing breakdown:
Section |  min time  |  avg time  |  max time  |%varavg| %total
---------------------------------------------------------------
Pair    | 4.5073     | 4.6173     | 4.7726     |   4.6 | 61.29
Neigh   | 0.4659     | 0.46913    | 0.47581    |   0.6 |  6.23
Comm    | 1.9042     | 2.0669     | 2.1843     |   7.2 | 27.44
Output  | 0.087889   | 0.091964   | 0.1009     |   1.7 |  1.22
Modify  | 0.20687    | 0.21437    | 0.22215    |   1.2 |  2.85
Other   |            | 0.074      |            |       |  0.98

Nlocal:             90 ave          91 max          88 min
Histogram: 1 0 0 0 0 0 1 0 0 2
Nghost:           1249 ave        1258 max        1244 min
Histogram: 2 0 0 1 0 0 0 0 0 1
Neighs:         5195.5 ave        5313 max        4954 min
Histogram: 1 0 0 0 0 0 1 0 0 2

Total # of neighbors = 20782
Ave neighs/atom = 57.727778
Neighbor list builds = 2753
Dangerous builds = 104
Total wall time: 0:00:07
